# vtk DataFile Version 2.0
Pressure Field Data 
ASCII 
DATASET UNSTRUCTURED_GRID 

POINTS 9 float 

    0.0000000000000000E+00     0.0000000000000000E+00     0.0000000000000000E+00 
    1.0000000000000000E+00     0.0000000000000000E+00     0.0000000000000000E+00 
    1.0000000000000000E+00     1.0000000000000000E+00     0.0000000000000000E+00 
    0.0000000000000000E+00     1.0000000000000000E+00     0.0000000000000000E+00 
    4.9999999999867178E-01     0.0000000000000000E+00     0.0000000000000000E+00 
    1.0000000000000000E+00     4.9999999999867178E-01     0.0000000000000000E+00 
    5.0000000000133049E-01     1.0000000000000000E+00     0.0000000000000000E+00 
    0.0000000000000000E+00     5.0000000000133049E-01     0.0000000000000000E+00 
    5.0000000000000111E-01     5.0000000000000111E-01     0.0000000000000000E+00 

CELLS 4 20 

4 0 4 8 7 
4 4 1 5 8 
4 8 5 2 6 
4 7 8 6 3 

CELL_TYPES 4 

7 
7 
7 
7 

CELL_DATA 4 
SCALARS Pressure float 1 
LOOKUP_TABLE default 

    5.0000000000000167E-01 
    4.9999999999999989E-01 
    4.9999999999999828E-01 
    5.0000000000000000E-01 

SCALARS Saturarion float 1 
LOOKUP_TABLE default 

    2.5000000000000031E+00 
    2.5000000000000000E+00 
    2.4999999999999969E+00 
    2.5000000000000000E+00 
