# vtk DataFile Version 2.0
Pressure Field Data 
ASCII 
DATASET UNSTRUCTURED_GRID 

POINTS 9 float 

    0.0000000000000000E+00     0.0000000000000000E+00     0.0000000000000000E+00 
    1.0000000000000000E+00     0.0000000000000000E+00     0.0000000000000000E+00 
    1.0000000000000000E+00     1.0000000000000000E+00     0.0000000000000000E+00 
    0.0000000000000000E+00     1.0000000000000000E+00     0.0000000000000000E+00 
    4.9999999999867178E-01     0.0000000000000000E+00     0.0000000000000000E+00 
    1.0000000000000000E+00     4.9999999999867178E-01     0.0000000000000000E+00 
    5.0000000000133049E-01     1.0000000000000000E+00     0.0000000000000000E+00 
    0.0000000000000000E+00     5.0000000000133049E-01     0.0000000000000000E+00 
    5.0000000000000111E-01     5.0000000000000111E-01     0.0000000000000000E+00 

CELLS 4 20 

4 0 4 8 7 
4 4 1 5 8 
4 8 5 2 6 
4 7 8 6 3 

CELL_TYPES 4 

7 
7 
7 
7 

CELL_DATA 4 
SCALARS Pressure float 1 
LOOKUP_TABLE default 

    3.5959416779131957E-03 
    3.5959416779131831E-03 
    3.5959416779131714E-03 
    3.5959416779131836E-03 

SCALARS Saturarion float 1 
LOOKUP_TABLE default 

    1.2499999999999979E+01 
    1.2500000000000004E+01 
    1.2500000000000023E+01 
    1.2499999999999998E+01 
